# vtk DataFile Version 1.0
3D Simulation C++
ASCII
DATASET UNSTRUCTURED_GRID
FIELD FieldData 8
TIME 1 3 double
0.0027096 1 5.91375
ITERATION 1 1 int
1100
NODES 1 3 int
10135 63659 53524
PARAMETERS 1 4 float
20 2 1 2
PROPERTIES 1 5 float
1 0.9 1 0.1 1
REFERENCEVELOCITY 1 6 float
0 0 0 0 0 0
COEFFICIENTS 1 7 float
0 1 7 1 0.1 1 0
CHARACTERISTICLENGTH 1 2 float
0.401142 0.049557 

POINTS 3720 double
1.9562153925e-01 -1.1008254663e-02 -3.6574992971e-01
-1.8918063873e-01 -1.0664225899e-02 -3.6480104163e-01
1.1890150912e-02 -1.5399464830e-02 -3.3302153528e-01
-5.9440882811e-02 4.6466642247e-02 -1.1763359423e+00
-3.7515854563e-02 2.0487862642e-01 -3.7125974500e-01
-7.6470712031e-03 -1.8552657577e-01 -3.6277496527e-01
-4.0000000000e+00 -4.0000000000e+00 -1.2000000000e+00
4.0000000000e+00 -4.0000000000e+00 -1.2000000000e+00
-4.0000000000e+00 4.0000000000e+00 -1.2000000000e+00
4.0000000000e+00 4.0000000000e+00 -1.2000000000e+00
-4.0000000000e+00 -4.0000000000e+00 4.8000000000e+00
4.0000000000e+00 -4.0000000000e+00 4.8000000000e+00
4.0000000000e+00 4.0000000000e+00 4.8000000000e+00
-4.0000000000e+00 4.0000000000e+00 4.8000000000e+00
3.7030415668e-02 1.8743120468e-02 -3.3410524731e-01
8.3830956855e-02 1.9292522521e-02 -3.3861190913e-01
1.1956391672e-01 -2.0158809511e-03 -3.4473892350e-01
1.3259289725e-01 3.6062836666e-02 -3.4846641634e-01
1.5574174658e-01 -4.7351032760e-03 -3.5325038019e-01
2.1757628300e-01 2.2674732128e-02 -3.7438794128e-01
2.3504264857e-01 -1.6789801962e-02 -3.8142821913e-01
2.5570748811e-01 1.8969105300e-02 -3.9113002651e-01
2.9254372003e-01 1.5303717186e-02 -4.1075379297e-01
3.2793592382e-01 1.0885250393e-02 -4.3323439713e-01
3.6214388944e-01 7.2078231866e-03 -4.5900476775e-01
3.9569679328e-01 5.3800199355e-03 -4.8902704027e-01
4.2985519201e-01 4.6068240706e-03 -5.2580118224e-01
4.6996426429e-01 -3.0458220271e-02 -5.8295588511e-01
4.9775157436e-01 -3.0510124341e-02 -6.3577484781e-01
5.1859841607e-01 -1.9420648946e-02 -6.9122047636e-01
5.2753573056e-01 9.4093808602e-03 -8.8204965383e-01
4.8503049283e-01 3.7656580810e-02 -9.9066590987e-01
3.0623688399e-01 -1.0530205768e-01 -1.1357438915e+00
2.5687624125e-01 -7.2824072288e-02 -1.1560336868e+00
-2.1948583961e-01 1.6485986575e-02 -3.7613182961e-01
-2.5678928607e-01 -1.3102609490e-02 -3.9302834045e-01
-2.8960472836e-01 1.3412465979e-02 -4.1091412053e-01
-3.2507908998e-01 9.0894757537e-04 -4.3349939706e-01
-3.6115858762e-01 -9.7315548492e-04 -4.6107522455e-01
-3.9393811684e-01 -4.2771031353e-03 -4.9098948140e-01
-4.2338363470e-01 -1.0444974598e-02 -5.2312493744e-01
-4.5958677961e-01 3.4984229324e-02 -5.7392290874e-01
-4.8258106257e-01 4.6034839828e-02 -6.1580080942e-01
-5.1382617818e-01 -3.1144192327e-02 -6.9230251424e-01
-5.2564247951e-01 -4.5674261531e-02 -8.5465470316e-01
-4.4467789652e-01 4.4325789510e-02 -1.0385944489e+00
-4.2047662705e-01 -5.1996801528e-02 -1.0642422181e+00
-1.7569887780e-01 -3.2563274890e-02 -1.1697814779e+00
-2.8463391432e-02 -2.5475765683e-03 -3.3353247480e-01
-6.2450735923e-02 -2.7518698384e-02 -3.3679510831e-01
-1.0664273136e-01 -8.0974960735e-03 -3.4261707689e-01
-1.5257396357e-01 -1.1414660208e-02 -3.5341198912e-01
-1.7494631483e-01 2.1913110074e-02 -3.6033357023e-01
4.0794839637e-04 1.8083759920e-02 -3.3318300973e-01
-2.9447132127e-02 3.7226467257e-02 -3.3480100735e-01
-2.7779719604e-02 8.0995869092e-02 -3.3901613472e-01
-8.6054400479e-03 1.1898943690e-01 -3.4519252393e-01
-1.3205835800e-02 1.6287166615e-01 -3.5587118808e-01
1.7766312862e-01 2.7004801638e-02 -3.6035243031e-01
1.9961070522e-01 6.0907271984e-02 -3.7055165272e-01
1.7644074967e-01 9.6613209373e-02 -3.6782032917e-01
1.9015024390e-01 1.4189769866e-01 -3.8227296173e-01
1.5061512177e-01 1.5942289396e-01 -3.7515815578e-01
1.2690022974e-01 1.8876490809e-01 -3.7853852022e-01
8.3835886378e-02 1.8317299860e-01 -3.6834404245e-01
3.8405133172e-02 1.7517265353e-01 -3.6079701162e-01
1.0105392400e-02 2.0896774850e-01 -3.7147098068e-01
-1.3954952559e-02 2.4511415760e-01 -3.8708055690e-01
3.1442109457e-02 2.4847913117e-01 -3.8930535802e-01
8.9982539283e-03 2.8152134621e-01 -4.0566863729e-01
-1.0133269914e-02 3.1858435635e-01 -4.2838450375e-01
-3.9845931925e-03 3.5845448430e-01 -4.5798385382e-01
1.3393859309e-03 3.9350278041e-01 -4.8937220978e-01
6.9610945664e-03 4.2638491677e-01 -5.2499633725e-01
1.6832709005e-02 4.5609751282e-01 -5.6481605374e-01
2.7861281327e-02 4.8248275889e-01 -6.1001797208e-01
-2.4386810592e-02 5.3122176115e-01 -8.1064930203e-01
-8.4472023222e-02 5.2331289042e-01 -8.3689912418e-01
-1.6644928477e-02 5.1420465640e-01 -9.1817648163e-01
3.5016658648e-02 3.9514888464e-01 -1.0872200780e+00
-6.9287752217e-02 2.0172467817e-01 -1.1632864335e+00
-2.4864731700e-02 -2.2153836556e-01 -3.7676512471e-01
1.6925510350e-03 -2.5276969826e-01 -3.9008187180e-01
-2.1629371414e-02 -2.8878525023e-01 -4.0960407470e-01
1.1697789559e-02 -3.1749316487e-01 -4.2715568467e-01
3.4145431213e-03 -3.5386071560e-01 -4.5356583042e-01
-6.1649622086e-04 -3.8929745034e-01 -4.8445372187e-01
3.0013721473e-03 -4.2247463454e-01 -5.1934506346e-01
1.2087710061e-02 -4.5331502629e-01 -5.5924808923e-01
-8.9193195036e-02 -4.9343357372e-01 -6.4745746499e-01
-4.5180256870e-02 -5.2533723359e-01 -7.3765984067e-01
8.9125414403e-02 -5.2565526069e-01 -7.9509424236e-01
8.4609883697e-02 -4.6986076849e-01 -1.0025938518e+00
-9.9232930749e-03 -2.7783209167e-01 -1.1516541605e+00
7.3413218839e-04 -4.6323876293e-02 -1.1787243220e+00
-2.1861642113e-01 -3.0557808216e-02 -3.7647432351e-01
-2.1001872523e-01 -6.6256104439e-02 -3.7637344028e-01
-1.7545903167e-01 -4.7931316903e-02 -3.6195941294e-01
-1.8025655147e-01 -9.1959711080e-02 -3.6919205912e-01
-1.8819276212e-01 -1.3839648520e-01 -3.8176872009e-01
-1.4791846201e-01 -1.5724139076e-01 -3.7455954629e-01
-1.1671590790e-01 -1.8689051809e-01 -3.7604685259e-01
-7.6512811798e-02 -2.2340764908e-01 -3.8232312036e-01
-4.5816786973e-02 -1.9328370394e-01 -3.6754129581e-01
2.3628923718e-02 -5.8372898547e-02 -3.3587093057e-01
-1.2434621327e-02 -7.7417729477e-02 -3.3806088520e-01
1.3545065839e-02 -1.0432577472e-01 -3.4205886495e-01
-3.1973102181e-02 -1.1237406615e-01 -3.4431900632e-01
-3.8258989241e-02 -1.5644332692e-01 -3.5522394485e-01
3.8475021143e-03 -1.4519156625e-01 -3.5077198616e-01
-7.9014809930e-02 2.0453804019e-01 -3.7594264647e-01
-6.9777993316e-02 1.6409523075e-01 -3.6064611407e-01
-1.1438407333e-01 1.8288900152e-01 -3.7442067006e-01
-1.5113526929e-01 1.5927568710e-01 -3.7607686318e-01
-1.4734289207e-01 1.2272391049e-01 -3.6563951447e-01
-1.8153134293e-01 1.2874136400e-01 -3.7736081906e-01
-1.6750702991e-01 9.1551819500e-02 -3.6520245798e-01
-1.9385793631e-01 5.6622186929e-02 -3.6915698675e-01
3.4764325402e-02 -1.7788465467e-01 -3.6112629695e-01
6.3886976343e-02 -2.1213823355e-01 -3.7584065784e-01
1.0565088117e-01 -2.0345845916e-01 -3.7896760342e-01
1.1173661484e-01 -1.6858337429e-01 -3.6837129055e-01
1.3673298737e-01 -1.4414749117e-01 -3.6685131897e-01
1.7595689460e-01 -1.5527938415e-01 -3.8106558471e-01
2.0995289256e-01 -1.2335492698e-01 -3.8479809200e-01
2.2341397525e-01 -8.4497801805e-02 -3.8297898847e-01
2.1199831643e-01 -4.9501745161e-02 -3.7390656801e-01
-4.0000000000e+00 3.6000000000e+00 -1.2000000000e+00
-4.0000000000e+00 3.2000000000e+00 -1.2000000000e+00
-4.0000000000e+00 2.8000000000e+00 -1.2000000000e+00
-4.0000000000e+00 2.4000000000e+00 -1.2000000000e+00
-4.0000000000e+00 2.0000000000e+00 -1.2000000000e+00
-4.0000000000e+00 1.6000000000e+00 -1.2000000000e+00
-4.0000000000e+00 1.2000000000e+00 -1.2000000000e+00
-4.0000000000e+00 8.0000000001e-01 -1.2000000000e+00
-4.0000000000e+00 4.0000000001e-01 -1.2000000000e+00
-4.0000000000e+00 8.3266726847e-12 -1.2000000000e+00
-4.0000000000e+00 -3.9999999999e-01 -1.2000000000e+00
-4.0000000000e+00 -7.9999999999e-01 -1.2000000000e+00
-4.0000000000e+00 -1.2000000000e+00 -1.2000000000e+00
-4.0000000000e+00 -1.6000000000e+00 -1.2000000000e+00
-4.0000000000e+00 -2.0000000000e+00 -1.2000000000e+00
-4.0000000000e+00 -2.4000000000e+00 -1.2000000000e+00
-4.0000000000e+00 -2.8000000000e+00 -1.2000000000e+00
-4.0000000000e+00 -3.2000000000e+00 -1.2000000000e+00
-4.0000000000e+00 -3.6000000000e+00 -1.2000000000e+00
-3.6000000000e+00 -4.0000000000e+00 -1.2000000000e+00
-3.2000000000e+00 -4.0000000000e+00 -1.2000000000e+00
-2.8000000000e+00 -4.0000000000e+00 -1.2000000000e+00
-2.4000000000e+00 -4.0000000000e+00 -1.2000000000e+00
-2.0000000000e+00 -4.0000000000e+00 -1.2000000000e+00
-1.6000000000e+00 -4.0000000000e+00 -1.2000000000e+00
-1.2000000000e+00 -4.0000000000e+00 -1.2000000000e+00
-8.0000000001e-01 -4.0000000000e+00 -1.2000000000e+00
-4.0000000001e-01 -4.0000000000e+00 -1.2000000000e+00
-8.3266726847e-12 -4.0000000000e+00 -1.2000000000e+00
3.9999999999e-01 -4.0000000000e+00 -1.2000000000e+00
7.9999999999e-01 -4.0000000000e+00 -1.2000000000e+00
1.2000000000e+00 -4.0000000000e+00 -1.2000000000e+00
1.6000000000e+00 -4.0000000000e+00 -1.2000000000e+00
2.0000000000e+00 -4.0000000000e+00 -1.2000000000e+00
2.4000000000e+00 -4.0000000000e+00 -1.2000000000e+00
2.8000000000e+00 -4.0000000000e+00 -1.2000000000e+00
3.2000000000e+00 -4.0000000000e+00 -1.2000000000e+00
3.6000000000e+00 -4.0000000000e+00 -1.2000000000e+00
4.0000000000e+00 -3.6000000000e+00 -1.2000000000e+00
4.0000000000e+00 -3.2000000000e+00 -1.2000000000e+00
4.0000000000e+00 -2.8000000000e+00 -1.2000000000e+00
4.0000000000e+00 -2.4000000000e+00 -1.2000000000e+00
4.0000000000e+00 -2.0000000000e+00 -1.2000000000e+00
4.0000000000e+00 -1.6000000000e+00 -1.2000000000e+00
4.0000000000e+00 -1.2000000000e+00 -1.2000000000e+00
4.0000000000e+00 -8.0000000001e-01 -1.2000000000e+00
4.0000000000e+00 -4.0000000001e-01 -1.2000000000e+00
4.0000000000e+00 -8.3266726847e-12 -1.2000000000e+00
4.0000000000e+00 3.9999999999e-01 -1.2000000000e+00
4.0000000000e+00 7.9999999999e-01 -1.2000000000e+00
4.0000000000e+00 1.2000000000e+00 -1.2000000000e+00
4.0000000000e+00 1.6000000000e+00 -1.2000000000e+00
4.0000000000e+00 2.0000000000e+00 -1.2000000000e+00
[...]
CELL_DATA 2750
NORMALS cell_normal_test double
2.9997571339e-01 6.2681280308e-03 9.5392624555e-01
2.4931489484e-02 1.3370224527e-02 9.9959974886e-01
2.6146254089e-01 3.5249084848e-02 9.6456977028e-01
9.5047399151e-02 5.6147544988e-02 9.9388804455e-01
1.8226215374e-01 3.0216268015e-01 9.3566993221e-01
1.0734865632e-01 2.8806650860e-01 9.5157445983e-01
1.3282079048e-01 2.0441784688e-01 9.6983090356e-01
8.8320607847e-02 2.1478340282e-01 9.7266004344e-01
2.4359375989e-01 1.0352462273e-01 9.6433642088e-01
2.7009878748e-01 1.3934892202e-01 9.5269539882e-01
1.4580788198e-01 1.5964948087e-01 9.7634630373e-01
1.8734524289e-01 1.5057343462e-01 9.7068501624e-01
2.0436928210e-01 1.0761856869e-01 9.7296014318e-01
7.6783522080e-02 2.5852742137e-01 9.6294748722e-01
3.0479814803e-01 1.2556758162e-01 9.4410321014e-01
1.5056945885e-01 2.7416195337e-01 9.4982317375e-01
2.4219471043e-02 5.1229814949e-02 9.9839317069e-01
-1.4928138598e-02 6.1073692693e-02 9.9802162038e-01
2.2130909171e-01 2.8626652477e-01 9.3224125779e-01
1.8588857270e-03 2.3663148571e-01 9.7159769685e-01
2.7537169118e-01 2.4367765204e-01 9.2994173666e-01
1.1689121292e-01 1.3088992891e-01 9.8448172703e-01
2.3019290169e-01 2.5253413429e-01 9.3980728824e-01
-3.6871185128e-03 1.2812551911e-01 9.9175110613e-01
1.2783566331e-01 8.2940613946e-02 9.8832125230e-01
1.8740969839e-01 3.1979811997e-02 9.8176111991e-01
2.5804643184e-01 1.7269129008e-01 9.5057338346e-01
2.9025840436e-01 2.1008771209e-01 9.3360227716e-01
2.1733374932e-01 1.8435176482e-01 9.5853036896e-01
1.6125319445e-01 2.3337686221e-01 9.5892264936e-01
-2.8704540234e-02 9.6903478100e-02 9.9487977430e-01
2.7452979545e-02 2.7020538542e-01 9.6241123414e-01
-2.4278063292e-02 3.3145990825e-01 9.4315688242e-01
1.5960041536e-02 3.1326810462e-01 9.4953060598e-01
2.0463003507e-01 2.2211006643e-01 9.5330670151e-01
2.6766372532e-01 7.0921680322e-02 9.6089866553e-01
3.0639312707e-01 8.6826501368e-02 9.4793692319e-01
1.8662238343e-02 1.9509221624e-01 9.8060733631e-01
1.7414179311e-01 7.0799535093e-02 9.8217211410e-01
-1.1547345175e-02 1.6612191092e-01 9.8603761061e-01
7.1817963285e-02 1.4184760497e-01 9.8727981703e-01
6.0429014776e-02 1.8644234807e-01 9.8060572353e-01
4.4742115077e-02 1.1495793542e-01 9.9236224043e-01
5.0749534428e-02 7.3588468606e-02 9.9599659741e-01
4.0321516567e-01 1.5228883591e-02 9.1497847586e-01
4.0610370073e-01 5.8673486791e-02 9.1194144889e-01
7.2062937508e-01 4.3357340695e-01 5.4102440293e-01
5.4549842111e-01 1.6965641918e-01 8.2076072762e-01
1.4399817464e-01 5.7980061345e-01 8.0193252481e-01
5.1446579348e-01 2.3732272936e-01 8.2401630413e-01
4.7657571623e-01 1.3764775340e-01 8.6829066716e-01
2.0394796165e-01 4.0277111559e-01 8.9228955916e-01
5.5111671657e-01 2.5634228366e-01 7.9407745109e-01
5.8216566234e-01 1.8556727797e-01 7.9161096944e-01
1.6930683037e-01 6.0708192972e-01 7.7639341045e-01
2.3454575449e-01 4.2446929884e-01 8.7453650775e-01
2.3130504461e-01 4.6169672232e-01 8.5634929377e-01
4.0782531155e-01 1.8966584399e-01 8.9314353991e-01
4.4276596071e-01 2.0757200008e-01 8.7227986840e-01
4.8101358405e-01 2.6318421412e-01 8.3627746675e-01
2.7328594599e-01 5.0953910878e-01 8.1589502287e-01
3.6683819460e-01 3.6955697262e-01 8.5373144663e-01
1.7465279322e-01 3.3976497653e-01 9.2415159067e-01
3.3626468871e-01 1.4704881273e-01 9.3021648330e-01
2.8650231342e-01 3.7116320309e-01 8.8326343809e-01
4.4249655304e-01 1.1961946394e-01 8.8875642580e-01
4.0591884325e-01 1.4525468419e-01 9.0229206436e-01
1.6552298249e-01 4.2052505598e-01 8.9205426940e-01
5.4396639208e-01 1.2862815804e-01 8.2918958100e-01
3.3119104231e-01 1.9441341997e-01 9.2331788439e-01
2.5141876264e-01 3.4471796936e-01 9.0441037554e-01
7.5212921988e-01 4.0768022785e-01 5.1778225966e-01
2.8066596376e-01 4.8291024824e-02 -9.5858989860e-01
1.2822234607e-01 3.9674665195e-01 9.0892855833e-01
1.3540677510e-01 3.5683671097e-01 9.2430112353e-01
1.9788735394e-01 4.8063627485e-01 8.5430051296e-01
1.9421387773e-01 5.2388252410e-01 8.2935400803e-01
2.1952775827e-01 6.4636542563e-01 7.3076624163e-01
2.1366788112e-01 6.0551348395e-01 7.6661558641e-01
4.7848780484e-01 1.7847273404e-01 8.5976560982e-01
5.1455057541e-01 1.9660023968e-01 8.3461730817e-01
6.2143518742e-01 2.4176287387e-01 7.4523085058e-01
5.8404145497e-01 2.2611487480e-01 7.7959453709e-01
2.8726579876e-01 7.5637661163e-01 5.8768425386e-01
5.0996432464e-01 1.1096116362e-01 8.5300879700e-01
1.1746883241e-01 5.1643597427e-01 8.4823048630e-01
6.2406899409e-02 8.5524628884e-01 5.1445035167e-01
2.7642873554e-01 4.0901908059e-01 8.6964966848e-01
2.0947681575e-01 3.6614663888e-01 9.0667309572e-01
3.6961965986e-01 2.6675176951e-01 8.9007010988e-01
3.6734231399e-01 2.1689651288e-01 9.0444210818e-01
4.1351333497e-01 2.7776724543e-01 8.6709404286e-01
4.4569137568e-01 2.4545201411e-01 8.6087891507e-01
2.9832487866e-01 4.4041447884e-01 8.4678058174e-01
2.6568429022e-01 4.7365597057e-01 8.3967962907e-01
3.7299418650e-01 1.2685656522e-01 9.1912063882e-01
9.5169622613e-01 2.4166730794e-02 3.0608865103e-01
1.1041632810e-01 9.2994774652e-01 3.5072128995e-01
3.3270455669e-01 3.4844105291e-01 8.7629704473e-01
6.0380742200e-01 3.6501003160e-02 7.9629408758e-01
5.6599239153e-03 5.9551201356e-01 8.0332646350e-01
3.9351708973e-01 7.9081874428e-01 4.6877501403e-01
3.6724276606e-01 4.1397699125e-01 8.3292004508e-01
3.3516026292e-01 4.4335959599e-01 8.3132416470e-01
4.1631686080e-01 3.4965866047e-01 8.3929678456e-01
4.7709601740e-01 3.0016296368e-01 8.2600338100e-01
4.2960650543e-01 3.1929024191e-01 8.4468455172e-01
2.5418747932e-01 3.1094619668e-01 9.1580630492e-01
9.6763282467e-02 5.8915846149e-01 8.0220270158e-01
5.7448233057e-01 1.0270243524e-01 8.1204818925e-01
1.0808456195e-01 8.7934922770e-01 4.6374849133e-01
2.0790923617e-01 8.7618920244e-01 4.3481746865e-01
3.3897513245e-01 7.9801581134e-01 4.9826360938e-01
7.3093962541e-01 6.6790993509e-01 1.4008419830e-01
7.9024185619e-01 5.7143374073e-01 2.2131716762e-01
2.8934003315e-01 5.8556331860e-01 7.5723044388e-01
6.6309270463e-01 7.4484421465e-01 -7.4264129760e-02
1.3617319818e-01 9.9067403768e-01 4.6702415205e-03
3.4162889204e-01 9.0871063332e-01 2.3986388853e-01
8.0415673143e-01 8.3642110940e-03 5.9435847034e-01
3.2161743945e-01 5.5700382396e-01 7.6570814462e-01
3.4622814147e-01 4.8644391154e-01 8.0218351702e-01
3.6306655312e-01 5.6109676760e-01 7.4387707008e-01
6.0775799580e-01 1.5770721319e-01 7.7830498743e-01
6.3412368769e-01 9.7328659460e-02 7.6708166499e-01
6.0556105617e-01 1.1989592463e-01 7.8671518004e-01
8.3777445460e-02 8.2221144302e-01 5.6298284397e-01
5.7271092751e-01 6.2869649868e-02 8.1734301284e-01
6.2286769136e-01 2.8542828653e-01 7.2839998099e-01
4.6871117870e-01 8.0074214737e-01 3.7299040790e-01
1.2039575577e-01 9.7050204306e-01 2.0887950211e-01
4.4861618846e-01 8.5630730076e-01 2.5589318498e-01
2.7004745851e-01 9.0045989712e-01 3.4094918072e-01
9.7139024572e-01 1.9519210922e-02 2.3668542611e-01
6.8948498435e-01 4.1468449884e-01 5.9384107536e-01
6.9678618399e-01 3.6430977506e-01 6.1787328927e-01
1.5061678067e-01 6.4330689259e-01 7.5064693920e-01
6.6660250529e-01 5.8236151022e-01 4.6529149074e-01
7.3660798815e-01 5.9332488968e-01 3.2461399705e-01
4.8955329510e-01 8.2007102946e-01 2.9634621290e-01
4.5156156053e-01 6.8334343265e-01 5.7370193489e-01
4.4560387326e-01 6.4627058956e-01 6.1949294848e-01
3.0668663212e-01 8.2028053032e-01 4.8278686939e-01
1.7564739480e-01 8.2933539654e-01 5.3042510568e-01
5.4970167248e-01 2.9617770738e-01 7.8109335993e-01
2.7212542077e-02 5.6610183315e-01 8.2388603099e-01
7.1901203546e-02 5.6249988556e-01 8.2366503851e-01
4.8312059538e-01 5.7343379373e-01 6.6164051760e-01
2.4351427106e-01 7.7627137038e-01 5.8146673105e-01
5.8703875783e-01 3.1733606243e-01 7.4477064945e-01
1.8370764483e-01 6.6451624500e-01 7.2434084612e-01
1.3924054703e-02 5.2772349331e-01 8.4930208719e-01
9.9346748355e-01 -1.1696267809e-02 1.1351456495e-01
5.8191544732e-01 4.5957059917e-01 6.7094655267e-01
4.1024003577e-01 6.3938571842e-01 6.5029917433e-01
6.4456226826e-01 1.6575798398e-01 7.4636704984e-01
4.5998769886e-01 4.6130302597e-01 7.5869021025e-01
6.1553515579e-01 4.2452752914e-01 6.6399762725e-01
5.1831609559e-01 5.3662741994e-01 6.6586743217e-01
3.8687892242e-01 4.9066466868e-01 7.8075148562e-01
3.9567014056e-01 5.2875899897e-01 7.5090549397e-01
4.8849194496e-01 6.0927101584e-01 6.2463145052e-01
6.8069971985e-01 6.8908089153e-01 2.4862706272e-01
2.1183831225e-01 7.1973318192e-01 6.6114194868e-01
3.4029301198e-01 6.2920938113e-01 6.9878195504e-01
2.9721521283e-01 7.1402799176e-01 6.3389837059e-01
2.5975480695e-01 6.9900851269e-01 6.6626911939e-01
3.6416406029e-01 6.6217345442e-01 6.5491285944e-01
5.8201110432e-01 3.6253499615e-01 7.2789521980e-01
6.6012069430e-01 3.0116466038e-01 6.8814280226e-01
6.5847602671e-01 3.4753205938e-01 6.6755583284e-01
6.1951579066e-01 3.8355037716e-01 6.8490093685e-01
7.3260511188e-01 3.4815418728e-02 6.7976292681e-01
2.8159249535e-02 7.3231059304e-01 6.8038830971e-01
4.4218624492e-02 7.9539880443e-01 6.0447121946e-01
6.3022928463e-02 7.6122644533e-01 6.4541646200e-01
1.1374552911e-01 7.5047320647e-01 6.5103910865e-01
6.1079649636e-01 7.9040103258e-01 4.6838528246e-02
5.4477087357e-01 7.9278263528e-01 2.7335030364e-01
4.3317905590e-01 8.9717181481e-01 -8.6247552103e-02
3.4518676831e-01 9.3414722353e-01 -9.0636966838e-02
7.3187740213e-01 3.2578642838e-01 5.9851371858e-01
8.5802823721e-02 4.5427973016e-01 8.8671743087e-01
6.5362613311e-01 2.0435308454e-01 7.2870617876e-01
4.0801984991e-01 4.2135355166e-01 8.0992653160e-01
4.3442805590e-01 3.8925952535e-01 8.1224952211e-01
4.1648519188e-01 4.5873689025e-01 7.8492072878e-01
6.8099456312e-01 5.1094902132e-01 5.2457363888e-01
5.8989435820e-01 5.0020906834e-01 6.3388921280e-01
5.6056742948e-01 5.3683529367e-01 6.3053312718e-01
9.2137559404e-02 4.1334406404e-01 9.0590140461e-01
4.4019432356e-01 7.6557440607e-02 8.9463283854e-01
5.0760642900e-01 7.0530590742e-01 4.9485279649e-01
6.3664712803e-01 5.8739723483e-02 7.6891487127e-01
1.1101347118e-01 6.5200363873e-01 7.5004484152e-01
4.6857940570e-01 4.9830616700e-01 7.2946850822e-01
5.1028530736e-01 4.9999928877e-01 6.9972109896e-01
5.2887378440e-01 4.2524862389e-01 7.3447677163e-01
5.4241489577e-01 4.5955161648e-01 7.0327689613e-01
4.3721494218e-01 5.3211856916e-01 7.2504684172e-01
4.4382436827e-01 5.7024682535e-01 6.9125862621e-01
3.7246705319e-01 5.9692032605e-01 7.1060144852e-01
4.0943321818e-01 6.0011687549e-01 6.8718569223e-01
5.1197779201e-02 4.7091511748e-01 8.8069162567e-01
4.7354080319e-01 5.1580023424e-02 8.7926026232e-01
8.5652657054e-01 6.1079163790e-03 5.1606678572e-01
6.6745674701e-01 3.4539907998e-02 7.4384708484e-01
6.9917973366e-01 5.9024132317e-02 7.1250533461e-01
3.6885364201e-02 6.3107467057e-01 7.7484464899e-01
7.6984235560e-01 3.6867279126e-01 5.2098284089e-01
7.6809252349e-01 3.3369353391e-01 5.4651852739e-01
7.3041086441e-01 2.7597780501e-01 6.2476893352e-01
1.5940831718e-01 4.6148144700e-01 8.7271064075e-01
1.2585771899e-01 4.7730999522e-01 8.6967522848e-01
6.9739049159e-01 7.1508873812e-01 -4.7901971356e-02
8.5915999757e-01 5.1154116253e-01 -1.3028338576e-02
6.9335767723e-01 2.6539224395e-01 6.6994185440e-01
6.9035105174e-01 2.1474050737e-01 6.9087042190e-01
7.7542751364e-01 6.3107583660e-01 2.1341498274e-02
8.9263469286e-01 3.0761213513e-01 3.2951188055e-01
8.7998874743e-01 1.5075974085e-01 4.5043457342e-01
4.8437149275e-02 5.0834357910e-01 8.5979104912e-01
8.3129637656e-02 5.2952854321e-01 8.4420908860e-01
5.3955005891e-01 4.3905350083e-02 8.4080797699e-01
5.0769735746e-01 7.0050728712e-02 8.5868288013e-01
8.6174875416e-01 4.8942380787e-01 1.3361669428e-01
8.9327894417e-01 4.4177071138e-01 8.3014254631e-02
1.3598301578e-01 8.1046685715e-01 5.6978249612e-01
2.0070833433e-01 7.5792295223e-01 6.2070038104e-01
1.5200621959e-01 7.7385855974e-01 6.1484716697e-01
6.0100761955e-01 5.7780805036e-01 5.5220258798e-01
5.2522095864e-01 6.1230454870e-01 5.9095353814e-01
1.6306425289e-02 6.6567690713e-01 7.4606189811e-01
4.8754771978e-02 6.9639184919e-01 7.1600374621e-01
7.9994170315e-01 2.8658018075e-01 5.2722392925e-01
8.2397990461e-01 9.1240928606e-02 5.5922465052e-01
7.9672185405e-01 2.4024125404e-01 5.5454344026e-01
9.6188691537e-01 6.5928294538e-02 -2.6538089987e-01
9.0665126044e-01 6.3084484944e-02 4.1713767475e-01
8.7996575853e-01 9.3673377843e-02 4.6570974018e-01
8.8465783846e-01 -2.7434968889e-02 4.6543295041e-01
9.5652461916e-01 2.9134676020e-01 -1.3331101068e-02
9.1542538299e-01 3.8937965692e-01 1.0188155358e-01
9.4055628954e-01 3.3905435901e-01 -1.9899945944e-02
1.2883498741e-01 7.1447040039e-01 6.8770167441e-01
9.3642418814e-02 6.8848651978e-01 7.1917828769e-01
1.7448539569e-01 7.0005256544e-01 6.9244584793e-01
6.9413013408e-01 1.1047305655e-01 7.1132205135e-01
6.6171310552e-01 1.2531538746e-01 7.3921026755e-01
7.1975610186e-01 1.3447552754e-01 6.8107817930e-01
9.4128059887e-01 2.0452489072e-01 2.6862688484e-01
9.1498799428e-01 2.0199468501e-01 3.4927799467e-01
9.1742179297e-01 2.9483826611e-01 2.6722209980e-01
-2.9403029760e-02 9.7678154053e-01 -2.1221047080e-01
3.7216319848e-01 9.0486374251e-01 -2.0667888423e-01
3.3546057126e-01 3.7786470274e-01 -8.6295102500e-01
6.3570504667e-01 6.3565425212e-01 -4.3797575892e-01
8.4312379987e-01 4.9427007376e-01 -2.1175304549e-01
7.3177636697e-01 2.5354195170e-01 -6.3262929703e-01
1.9977847714e-01 7.4902197985e-01 -6.3170771229e-01
4.6313286402e-02 8.8202921115e-01 -4.6891315846e-01
1.4811004804e-02 4.0470471683e-01 9.1432747214e-01
5.0888042713e-02 3.8791382023e-01 9.2028977783e-01
3.7206889594e-01 8.2063975733e-02 9.2457030050e-01
3.3303236185e-01 2.9677786412e-01 8.9499293032e-01
2.9014251060e-01 2.8345450564e-01 9.1404095465e-01
9.8132010199e-02 3.2880993788e-01 9.3928384066e-01
5.8822710559e-02 3.4511349528e-01 9.3671583957e-01
7.8523875515e-01 3.3353720948e-01 -5.2168288002e-01
3.6221718594e-01 6.8511804842e-01 -6.3199048247e-01
3.3530062619e-01 7.7564784053e-01 -5.3473724161e-01
-2.8547726618e-02 3.8021767782e-01 9.2445635093e-01
9.8692529182e-02 3.6600403507e-01 -9.2536524194e-01
6.6292953063e-02 5.6377278613e-02 -9.9620622706e-01
1.5063942252e-01 2.2302491510e-01 -9.6310313655e-01
-6.4539757091e-03 3.0425008508e-02 -9.9951621550e-01
3.3395617060e-01 2.3974566737e-02 9.4228366019e-01
3.3724699666e-01 6.4230854575e-02 9.3922247661e-01
2.2614540556e-01 1.1846155728e-01 -9.6686354518e-01
-4.0324475869e-01 -1.4113756314e-02 9.1498331486e-01
-3.7391876662e-02 -4.1868602864e-01 9.0736092983e-01
-8.3686310806e-02 -4.0063999428e-01 9.1240571916e-01
-6.8877648410e-01 -4.5928940683e-01 5.6092797730e-01
-5.3713250885e-01 -1.6828363596e-01 8.2654055303e-01
-1.7426658799e-01 -5.5937998869e-01 8.1038582451e-01
-5.1211478817e-01 -2.4349306723e-01 8.2368050235e-01
-4.6035507961e-01 -1.4675588190e-01 8.7552036630e-01
-1.8557028750e-01 -4.0451009673e-01 8.9550837519e-01
-5.5008487659e-01 -2.5721192958e-01 7.9451158067e-01
-5.7717338015e-01 -1.7931276660e-01 7.9669179799e-01
-1.8689585932e-01 -5.9370134148e-01 7.8268042961e-01
-2.2719189186e-01 -4.1752152854e-01 8.7980657958e-01
-2.3607051186e-01 -4.5797684038e-01 8.5704604725e-01
-4.1102762555e-01 -1.9894032610e-01 8.8965107637e-01
-4.3888702302e-01 -2.1650795753e-01 8.7206793620e-01
-4.7446093206e-01 -2.7604490618e-01 8.3587441265e-01
-2.8399971205e-01 -5.0837330950e-01 8.1295801967e-01
-1.8728861698e-01 -3.6306842533e-01 9.1274546971e-01
-2.4302269847e-01 -3.4605356141e-01 9.0619363310e-01
-3.7150886830e-01 -3.6045107836e-01 8.5560281725e-01
-3.9978140973e-01 -3.3877987252e-01 8.5170594832e-01
-3.5095256271e-01 -1.4803685042e-01 9.2461742880e-01
-2.6506161318e-01 -3.7886361570e-01 8.8668184932e-01
-4.1833414120e-01 -1.5271108328e-01 8.9536354145e-01
-1.4896337994e-01 -4.3399571791e-01 8.8851428141e-01
-5.3042826682e-01 -1.1779850471e-01 8.3950542943e-01
-1.3831809220e-01 -5.5001761831e-01 8.2361928397e-01
-3.4080596287e-01 -1.9106170698e-01 9.2051437783e-01
-7.4806720611e-01 -4.1152650838e-01 5.2061635399e-01
-3.2820781053e-01 -1.1819019954e-01 9.3718232476e-01
-2.0162960712e-01 -4.8780176738e-01 8.4934971436e-01
-2.1156747269e-01 -5.2862803001e-01 8.2206545384e-01
-2.3100872334e-01 -6.3307741416e-01 7.3881523903e-01
-2.2756718693e-01 -5.9877807235e-01 7.6790493911e-01
-4.7322158724e-01 -1.8851635574e-01 8.6053641003e-01
-5.0684804628e-01 -1.9794061649e-01 8.3900212773e-01
-6.2115577390e-01 -2.3770942641e-01 7.4676618372e-01
-5.8161462926e-01 -2.2574646833e-01 7.8151324689e-01
-3.2198598516e-01 -7.2211862569e-01 6.1226604985e-01
-4.8499898317e-01 -1.0789301608e-01 8.6783355743e-01
-1.2997037959e-01 -5.0737493588e-01 8.5186758059e-01
-2.9974153539e-01 -3.8332182759e-01 8.7362428335e-01
-3.3865704691e-01 -3.5424193048e-01 8.7167887394e-01
-1.9679905618e-03 -8.5284050489e-01 5.2216778934e-01
-3.6665048830e-01 -2.7271642828e-01 8.8949039858e-01
-3.7099465859e-01 -2.1744501960e-01 9.0281815819e-01
-3.9733430837e-01 -2.8584102371e-01 8.7202084640e-01
-4.3894747953e-01 -2.5936055245e-01 8.6026578105e-01
-2.7670937106e-01 -4.6668927682e-01 8.4001966814e-01
-3.9535812408e-01 -1.3084915005e-01 9.0915920149e-01
-9.3927171340e-01 -4.3865659678e-02 3.4035929884e-01
-1.1165691635e-01 -9.6487140137e-01 2.3781486885e-01
-3.1145152909e-01 -4.3716745775e-01 8.4373133100e-01
-6.0648703238e-01 -1.9622761929e-02 7.9485119788e-01
-9.9641187245e-03 -5.8608824470e-01 8.1018595752e-01
-4.3238535168e-01 -7.8350736293e-01 4.4627247270e-01
-3.8072023488e-01 -4.1561021546e-01 8.2602678622e-01
-3.5728685081e-01 -4.8762689459e-01 7.9659658417e-01
-3.4997425515e-01 -4.4357965072e-01 8.2507885332e-01
-4.4369295023e-01 -3.4803383991e-01 8.2583836929e-01
-4.7688639009e-01 -3.1710329108e-01 8.1977123256e-01
-2.5111903125e-01 -3.1027013636e-01 9.1688149432e-01
-1.0085890571e-01 -5.6735484883e-01 8.1727348950e-01
-5.6227341255e-01 -8.8077572264e-02 8.2224749972e-01
-2.2239066338e-01 -8.8267940170e-01 4.1402834041e-01
-2.7817555058e-01 -8.5352992803e-01 4.4057351828e-01
-3.5983878479e-01 -7.2550067178e-01 5.8665562659e-01
-3.5533678411e-01 -7.8284651990e-01 5.1077107997e-01
-8.5909525543e-01 -4.5908060190e-01 2.2627492805e-01
-7.9170151711e-01 -5.5595557158e-01 2.5322343935e-01
-2.9793298187e-01 -5.8094638314e-01 7.5745444630e-01
-7.5656345354e-01 -6.3683839979e-01 -1.4848768744e-01
-1.2094852106e-01 -9.8776022777e-01 9.8494607432e-02
-1.5676918936e-01 -9.7277005379e-01 1.7070982317e-01
-2.4476782651e-01 -9.4425150107e-01 2.2017677860e-01
-7.1096040835e-01 -6.7348459471e-01 -2.0237044853e-01
-7.9387198771e-01 3.2036217036e-03 6.0807647869e-01
-3.3043833424e-01 -5.5393789918e-01 7.6417492180e-01
-3.7123326449e-01 -5.6229565300e-01 7.3892453062e-01
-6.0172604300e-01 -1.5185347250e-01 7.8413410336e-01
-6.3097949110e-01 -8.7009927246e-02 7.7090476349e-01
-6.0019181776e-01 -1.1005345754e-01 7.9224870993e-01
-3.7227857887e-02 -8.2407336254e-01 5.6525850702e-01
-5.6381937214e-01 -4.3577143781e-02 8.2474768757e-01
-6.2427721111e-01 -2.8480659284e-01 7.2743602355e-01
-4.1849395843e-01 -8.4418631598e-01 3.3498100046e-01
-3.9209493169e-01 -8.9323662691e-01 2.1997702809e-01
-3.2081011438e-01 -8.5339428528e-01 4.1085163302e-01
-6.6930187148e-01 -4.3581319643e-01 6.0174900303e-01
-7.0006914635e-01 -3.5993806590e-01 6.1672342184e-01
-1.6100516097e-01 -6.2821219874e-01 7.6120087460e-01
-2.6842344186e-01 -6.4278793157e-01 7.1747650198e-01
-3.0318178858e-01 -6.1774836111e-01 7.2558098474e-01
-6.5560134241e-01 -7.0570632293e-01 2.6863630730e-01
-6.5030140553e-01 -5.8326300996e-01 4.8673642064e-01
-7.1865858986e-01 -6.2637200305e-01 3.0197341773e-01
-5.0577918420e-01 -8.0595103527e-01 3.0762045700e-01
-4.0199589898e-01 -7.0178504551e-01 5.8813012769e-01
-4.1750455487e-01 -6.6791931949e-01 6.1609555210e-01
-3.0994697222e-01 -7.9634799280e-01 5.1938689700e-01
-2.7650994711e-01 -8.2553977581e-01 4.9196171366e-01
-5.5192001617e-01 -3.0150351994e-01 7.7748306941e-01
-2.8286157135e-02 -5.4510988837e-01 8.3788728533e-01
-6.5320236683e-02 -5.3868694986e-01 8.3997002133e-01
-4.8159800184e-01 -5.9798239300e-01 6.4068746069e-01
-2.7557619353e-01 -7.5339708904e-01 5.9703482962e-01