# vtk DataFile Version 1.0
3D Simulation C++
ASCII
DATASET UNSTRUCTURED_GRID
FIELD FieldData 8
TIME 1 3 double
0.00456065 1 6.03212
ITERATION 1 1 int
600
NODES 1 3 int
2779 16705 13926
PARAMETERS 1 4 float
20 2 1 2
PROPERTIES 1 5 float
1 0.9 1 0.1 1
REFERENCEVELOCITY 1 6 float
0 0 0 0 0 0
COEFFICIENTS 1 7 float
0 1 7 1 0.1 1 0
CHARACTERISTICLENGTH 1 2 float
0.673727 0.0976237 

POINTS 1269 double
2.3350567033e-01 -4.9339231147e-03 -3.6775029713e-01
-2.3487434449e-01 3.1246646995e-02 -3.6965114055e-01
-1.0514655870e-02 -3.3058150270e-03 -3.1927863510e-01
-9.0948606715e-03 -5.6395616320e-02 -1.1766097369e+00
3.8404976946e-04 2.1334806984e-01 -3.5866998562e-01
4.8783724447e-04 -2.1990455080e-01 -3.6277655638e-01
-4.0000000000e+00 -4.0000000000e+00 -1.2000000000e+00
4.0000000000e+00 -4.0000000000e+00 -1.2000000000e+00
-4.0000000000e+00 4.0000000000e+00 -1.2000000000e+00
4.0000000000e+00 4.0000000000e+00 -1.2000000000e+00
-4.0000000000e+00 -4.0000000000e+00 4.8000000000e+00
4.0000000000e+00 -4.0000000000e+00 4.8000000000e+00
4.0000000000e+00 4.0000000000e+00 4.8000000000e+00
-4.0000000000e+00 4.0000000000e+00 4.8000000000e+00
3.7250389502e-02 2.9596867939e-02 -3.2090389072e-01
8.8072646131e-02 2.2353565547e-03 -3.2570276697e-01
1.4013988518e-01 2.8882872620e-02 -3.3662612688e-01
1.7990370327e-01 -1.3664902226e-02 -3.4745485295e-01
2.9111520007e-01 -3.7452067244e-03 -3.9709472128e-01
3.5528394882e-01 -1.1138094395e-02 -4.4034001737e-01
4.1788699926e-01 -2.8859087331e-02 -5.0163145313e-01
4.6042155717e-01 3.7642127253e-02 -5.5756348056e-01
5.2154158034e-01 4.2304706356e-02 -6.9675232892e-01
5.3346148726e-01 -2.6375283303e-02 -7.9889324973e-01
3.0653454027e-01 -5.1941058759e-02 -1.1258436181e+00
-2.7714072686e-01 -1.4312724321e-02 -3.8998142737e-01
-3.4436033175e-01 4.9320970449e-03 -4.3296121392e-01
-4.0437576670e-01 2.0983399961e-02 -4.8817114734e-01
-4.4948973972e-01 -3.1552144064e-02 -5.4310924449e-01
-4.9786461157e-01 -3.5922966187e-02 -6.2975636570e-01
-5.2978354230e-01 1.4343329867e-02 -8.2716711661e-01
-4.6872972472e-01 -7.4121764090e-02 -9.9159604850e-01
-6.6187043946e-02 1.8563270889e-02 -3.2316361217e-01
-1.2955863378e-01 3.1885726105e-02 -3.3423333573e-01
-1.8493034683e-01 1.4906021806e-02 -3.4976755165e-01
-1.8201405997e-02 5.4980195124e-02 -3.2179629798e-01
-2.5677773104e-02 1.1334566092e-01 -3.3040680887e-01
-8.4076105452e-02 1.4189893985e-01 -3.4227761981e-01
-2.9523974724e-02 1.6490405864e-01 -3.4342514357e-01
2.0032899889e-01 4.9638899600e-02 -3.5612675054e-01
1.9425311671e-01 1.1474382770e-01 -3.6400817256e-01
1.8073802312e-01 1.7492026490e-01 -3.7564007385e-01
1.2255098047e-01 1.8649770374e-01 -3.6284448302e-01
9.8352468645e-02 2.4190379713e-01 -3.8025736307e-01
4.4589957836e-02 2.4470061273e-01 -3.7449864248e-01
1.3050515125e-03 2.7911436148e-01 -3.8967968253e-01
8.8037634383e-03 3.4668595323e-01 -4.3289771001e-01
2.3478976989e-02 4.1140795808e-01 -4.9310003638e-01
-4.6541702881e-02 4.4564261995e-01 -5.3746253259e-01
-3.4088447823e-02 5.2556068725e-01 -7.1722320325e-01
1.6065096249e-03 5.3204087679e-01 -8.2443208769e-01
7.0559803575e-02 3.1105050196e-01 -1.1217586727e+00
1.7175585704e-04 -2.8444127696e-01 -3.9472251962e-01
-8.6158726888e-03 -3.5032148453e-01 -4.3852146753e-01
-2.6794555405e-02 -4.1145761618e-01 -4.9759604972e-01
2.6722458985e-02 -4.5945485243e-01 -5.5874456202e-01
2.5554587856e-02 -5.0639053608e-01 -6.5410609935e-01
2.2553576027e-02 -5.2844896023e-01 -7.6098074424e-01
8.8425069384e-02 -3.4754058144e-01 -1.0976095129e+00
-2.1696790760e-01 -2.7628475543e-02 -3.6201644760e-01
-1.8361691135e-01 -7.8938283460e-02 -3.5488006146e-01
-2.0006124680e-01 -1.2327323635e-01 -3.6969965225e-01
-1.8020786675e-01 -1.7501436822e-01 -3.7717608325e-01
-1.2166945480e-01 -1.8845109376e-01 -3.6483027844e-01
-6.2850219824e-02 -2.0216091967e-01 -3.5972588031e-01
-9.0997063788e-03 -6.2213758323e-02 -3.2270567523e-01
-1.9487677080e-02 -1.1855788153e-01 -3.3191915395e-01
2.4644848423e-02 -1.6122279953e-01 -3.4278508192e-01
-2.8348411212e-02 -1.6901268205e-01 -3.4564669254e-01
-6.2522635697e-02 2.0174336850e-01 -3.5820180030e-01
-1.1913919375e-01 1.9245832629e-01 -3.6445404124e-01
-1.7750549975e-01 1.7929255917e-01 -3.7640673740e-01
-1.8714122119e-01 1.2330963347e-01 -3.6376605088e-01
6.2659532378e-02 -2.0604948334e-01 -3.6099456638e-01
1.2194492523e-01 -1.9419595808e-01 -3.6660258268e-01
1.8173817124e-01 -1.7841936703e-01 -3.7807990648e-01
1.9795902837e-01 -1.1868674140e-01 -3.6676005380e-01
2.1224651091e-01 -6.0264567692e-02 -3.6237824085e-01
-4.0000000000e+00 3.3333333333e+00 -1.2000000000e+00
-4.0000000000e+00 2.6666666667e+00 -1.2000000000e+00
-4.0000000000e+00 2.0000000000e+00 -1.2000000000e+00
-4.0000000000e+00 1.3333333333e+00 -1.2000000000e+00
-4.0000000000e+00 6.6666666667e-01 -1.2000000000e+00
-4.0000000000e+00 8.3266726847e-12 -1.2000000000e+00
-4.0000000000e+00 -6.6666666666e-01 -1.2000000000e+00
-4.0000000000e+00 -1.3333333333e+00 -1.2000000000e+00
-4.0000000000e+00 -2.0000000000e+00 -1.2000000000e+00
-4.0000000000e+00 -2.6666666667e+00 -1.2000000000e+00
-4.0000000000e+00 -3.3333333333e+00 -1.2000000000e+00
-3.3333333333e+00 -4.0000000000e+00 -1.2000000000e+00
-2.6666666667e+00 -4.0000000000e+00 -1.2000000000e+00
-2.0000000000e+00 -4.0000000000e+00 -1.2000000000e+00
-1.3333333333e+00 -4.0000000000e+00 -1.2000000000e+00
-6.6666666667e-01 -4.0000000000e+00 -1.2000000000e+00
-8.3266726847e-12 -4.0000000000e+00 -1.2000000000e+00
6.6666666666e-01 -4.0000000000e+00 -1.2000000000e+00
1.3333333333e+00 -4.0000000000e+00 -1.2000000000e+00
2.0000000000e+00 -4.0000000000e+00 -1.2000000000e+00
2.6666666667e+00 -4.0000000000e+00 -1.2000000000e+00
3.3333333333e+00 -4.0000000000e+00 -1.2000000000e+00
4.0000000000e+00 -3.3333333333e+00 -1.2000000000e+00
4.0000000000e+00 -2.6666666667e+00 -1.2000000000e+00
4.0000000000e+00 -2.0000000000e+00 -1.2000000000e+00
4.0000000000e+00 -1.3333333333e+00 -1.2000000000e+00
4.0000000000e+00 -6.6666666667e-01 -1.2000000000e+00
4.0000000000e+00 -8.3266726847e-12 -1.2000000000e+00
4.0000000000e+00 6.6666666666e-01 -1.2000000000e+00
4.0000000000e+00 1.3333333333e+00 -1.2000000000e+00
4.0000000000e+00 2.0000000000e+00 -1.2000000000e+00
4.0000000000e+00 2.6666666667e+00 -1.2000000000e+00
4.0000000000e+00 3.3333333333e+00 -1.2000000000e+00
3.3333333333e+00 4.0000000000e+00 -1.2000000000e+00
2.6666666667e+00 4.0000000000e+00 -1.2000000000e+00
2.0000000000e+00 4.0000000000e+00 -1.2000000000e+00
1.3333333333e+00 4.0000000000e+00 -1.2000000000e+00
6.6666666667e-01 4.0000000000e+00 -1.2000000000e+00
8.3266726847e-12 4.0000000000e+00 -1.2000000000e+00
-6.6666666666e-01 4.0000000000e+00 -1.2000000000e+00
-1.3333333333e+00 4.0000000000e+00 -1.2000000000e+00
-2.0000000000e+00 4.0000000000e+00 -1.2000000000e+00
-2.6666666667e+00 4.0000000000e+00 -1.2000000000e+00
-3.3333333333e+00 4.0000000000e+00 -1.2000000000e+00
-3.3333333333e+00 -4.0000000000e+00 4.8000000000e+00
-2.6666666667e+00 -4.0000000000e+00 4.8000000000e+00
-2.0000000000e+00 -4.0000000000e+00 4.8000000000e+00
-1.3333333333e+00 -4.0000000000e+00 4.8000000000e+00
-6.6666666667e-01 -4.0000000000e+00 4.8000000000e+00
-8.3266726847e-12 -4.0000000000e+00 4.8000000000e+00
6.6666666666e-01 -4.0000000000e+00 4.8000000000e+00
1.3333333333e+00 -4.0000000000e+00 4.8000000000e+00
2.0000000000e+00 -4.0000000000e+00 4.8000000000e+00
2.6666666667e+00 -4.0000000000e+00 4.8000000000e+00
3.3333333333e+00 -4.0000000000e+00 4.8000000000e+00
4.0000000000e+00 -3.3333333333e+00 4.8000000000e+00
4.0000000000e+00 -2.6666666667e+00 4.8000000000e+00
4.0000000000e+00 -2.0000000000e+00 4.8000000000e+00
4.0000000000e+00 -1.3333333333e+00 4.8000000000e+00
4.0000000000e+00 -6.6666666667e-01 4.8000000000e+00
4.0000000000e+00 -8.3266726847e-12 4.8000000000e+00
4.0000000000e+00 6.6666666666e-01 4.8000000000e+00
4.0000000000e+00 1.3333333333e+00 4.8000000000e+00
4.0000000000e+00 2.0000000000e+00 4.8000000000e+00
4.0000000000e+00 2.6666666667e+00 4.8000000000e+00
4.0000000000e+00 3.3333333333e+00 4.8000000000e+00
3.3333333333e+00 4.0000000000e+00 4.8000000000e+00
2.6666666667e+00 4.0000000000e+00 4.8000000000e+00
2.0000000000e+00 4.0000000000e+00 4.8000000000e+00
1.3333333333e+00 4.0000000000e+00 4.8000000000e+00
6.6666666667e-01 4.0000000000e+00 4.8000000000e+00
8.3266726847e-12 4.0000000000e+00 4.8000000000e+00
-6.6666666666e-01 4.0000000000e+00 4.8000000000e+00
-1.3333333333e+00 4.0000000000e+00 4.8000000000e+00
-2.0000000000e+00 4.0000000000e+00 4.8000000000e+00
-2.6666666667e+00 4.0000000000e+00 4.8000000000e+00
-3.3333333333e+00 4.0000000000e+00 4.8000000000e+00
-4.0000000000e+00 3.3333333333e+00 4.8000000000e+00
-4.0000000000e+00 2.6666666667e+00 4.8000000000e+00
-4.0000000000e+00 2.0000000000e+00 4.8000000000e+00
-4.0000000000e+00 1.3333333333e+00 4.8000000000e+00
-4.0000000000e+00 6.6666666667e-01 4.8000000000e+00
-4.0000000000e+00 8.3266726847e-12 4.8000000000e+00
-4.0000000000e+00 -6.6666666666e-01 4.8000000000e+00
-4.0000000000e+00 -1.3333333333e+00 4.8000000000e+00
-4.0000000000e+00 -2.0000000000e+00 4.8000000000e+00
-4.0000000000e+00 -2.6666666667e+00 4.8000000000e+00
-4.0000000000e+00 -3.3333333333e+00 4.8000000000e+00
-4.0000000000e+00 -4.0000000000e+00 -4.5000000000e-01
-4.0000000000e+00 -4.0000000000e+00 2.9999999999e-01
-4.0000000000e+00 -4.0000000000e+00 1.0500000000e+00
-4.0000000000e+00 -4.0000000000e+00 1.8000000000e+00
-4.0000000000e+00 -4.0000000000e+00 2.5500000000e+00
-4.0000000000e+00 -4.0000000000e+00 3.3000000000e+00
-4.0000000000e+00 -4.0000000000e+00 4.0500000000e+00
4.0000000000e+00 -4.0000000000e+00 -4.5000000000e-01
4.0000000000e+00 -4.0000000000e+00 2.9999999999e-01
4.0000000000e+00 -4.0000000000e+00 1.0500000000e+00
4.0000000000e+00 -4.0000000000e+00 1.8000000000e+00
4.0000000000e+00 -4.0000000000e+00 2.5500000000e+00
4.0000000000e+00 -4.0000000000e+00 3.3000000000e+00
4.0000000000e+00 -4.0000000000e+00 4.0500000000e+00
4.0000000000e+00 4.0000000000e+00 -4.5000000000e-01
4.0000000000e+00 4.0000000000e+00 2.9999999999e-01
[...]
CELL_DATA 866
NORMALS cell_normal_test double
1.1940994717e-01 1.5977804269e-01 9.7990420021e-01
1.8343572713e-01 1.5853599340e-01 9.7016373505e-01
-1.8737198646e-02 2.4345624820e-01 9.6973087638e-01
2.9713510855e-01 3.4842270335e-02 9.5419953022e-01
1.0127061739e-01 2.7135245216e-01 9.5713745552e-01
2.1056971640e-01 9.8604285834e-02 9.7259322913e-01
8.9685749138e-02 1.0092089382e-01 9.9084380181e-01
1.8020432356e-01 5.0570739814e-02 9.8232835755e-01
-8.0175709691e-02 2.3839864840e-01 9.6785223047e-01
-5.5013704118e-03 1.4525587681e-01 9.8937882794e-01
2.8616565777e-02 9.7490331546e-02 9.9482497326e-01
1.5970346800e-02 2.0109219136e-01 9.7944212621e-01
2.7774657459e-01 9.2900134177e-02 9.5615187359e-01
8.1716384197e-02 2.1073449580e-01 9.7412186344e-01
1.1810395809e-01 3.8967318886e-01 9.1334892619e-01
3.9119418701e-03 4.3669346300e-02 9.9903838010e-01
2.9935750476e-01 2.4545791036e-01 9.2202792723e-01
2.0406350576e-01 2.6157391877e-01 9.4336481312e-01
2.5956208627e-01 2.8459357256e-01 9.2284019301e-01
-2.8694486573e-03 3.0178771190e-01 9.5337083195e-01
2.1586540256e-01 2.0067910671e-01 9.5557837151e-01
2.7821350614e-01 1.9494328299e-01 9.4052876693e-01
3.0696902759e-01 1.4256035312e-01 9.4098170111e-01
6.5594548895e-02 3.7446799709e-01 9.2491679318e-01
1.6294014365e-01 3.5987818602e-01 9.1866109138e-01
1.5739217472e-01 2.9022027068e-01 9.4392790923e-01
4.7220727324e-02 3.1849924041e-01 9.4674623674e-01
3.5197544075e-01 1.4640208574e-02 9.3589473415e-01
1.2147065413e-01 5.1771837776e-02 9.9124394424e-01
2.8688076144e-01 4.6687659562e-01 8.3649606884e-01
6.8991052262e-02 6.7102411153e-01 7.3821871857e-01
4.2388698224e-01 4.9219537334e-01 7.6030489986e-01
5.5008108657e-01 4.0704490649e-01 7.2919492750e-01
4.0974291842e-02 5.3512441760e-01 8.4377897882e-01
5.6068935663e-01 2.5328596065e-02 8.2763875428e-01
5.3167302521e-01 5.5448315979e-01 6.4021263638e-01
5.1107426026e-01 4.9129138723e-01 7.0529133933e-01
5.6549487353e-01 2.5482877671e-01 7.8439648302e-01
2.6646190461e-01 3.4418754707e-01 9.0029605455e-01
9.9528893126e-01 6.2464215749e-02 7.4149612751e-02
6.8975106948e-01 7.1448989076e-01 1.1725040787e-01
5.5578285103e-01 1.7572341377e-01 8.1254335537e-01
5.9729304929e-01 6.0883611308e-02 7.9970882148e-01
2.8814592604e-01 5.3881438367e-01 7.9161290114e-01
3.2577746022e-01 3.5854040354e-01 8.7482445407e-01
5.0569650448e-01 3.6357880530e-01 7.8235637512e-01
6.1019333773e-01 6.3509435318e-01 4.7362353525e-01
6.2383966564e-01 3.6274348305e-01 6.9227251649e-01
9.9212449396e-01 7.2573733285e-02 -1.0208840147e-01
9.7198735250e-01 1.8812063472e-01 -1.4089433407e-01
5.0870660788e-01 7.2083065891e-01 4.7076612907e-01
4.4788085931e-01 6.3365819437e-01 6.3077732091e-01
1.0360848461e-01 6.2666679573e-01 7.7236908862e-01
1.6395040892e-01 5.3505244260e-01 8.2875759248e-01
9.4429509262e-02 5.7070605654e-01 8.1570684980e-01
2.1897665007e-01 5.7207298144e-01 7.9043135732e-01
1.9271983025e-01 6.2638327090e-01 7.5531653296e-01
8.5712592447e-01 4.6079933616e-01 -2.3021538043e-01
3.5215503045e-01 2.5325619481e-01 9.0102615629e-01
3.7018024703e-01 3.1471811429e-01 8.7402465254e-01
4.0603915713e-01 4.3302908193e-01 8.0474717588e-01
3.3778643829e-01 4.2506859207e-01 8.3977200129e-01
3.6035231910e-01 5.6038383360e-01 7.4573196603e-01
3.7181976145e-01 6.2153491283e-01 6.8952477630e-01
6.1829039325e-01 2.6963716258e-01 7.3824981556e-01
1.1018664117e-01 7.7981342109e-01 6.1623853530e-01
6.8713517459e-01 6.3486072858e-01 3.5326634023e-01
5.1857156282e-01 2.9255004455e-01 8.0342890518e-01
4.6426198882e-01 2.7496138085e-01 8.4193648501e-01
9.3851833896e-01 2.1120175300e-01 2.7308816700e-01
8.9345346651e-01 3.3118472895e-01 3.0340991824e-01
2.7075970479e-01 8.2393378838e-01 4.9781753146e-01
8.7927361580e-01 1.2664301668e-01 4.5917257636e-01
7.1374867854e-02 9.2342517761e-01 3.7708297441e-01
1.6208301179e-01 8.3299364713e-01 5.2900915033e-01
4.4464956371e-01 3.7865933467e-01 8.1172894106e-01
4.2227197011e-01 3.2077448174e-01 8.4781490617e-01
4.4367725064e-01 7.0550299385e-01 5.5264457198e-01
6.8432342778e-01 3.8087199170e-01 6.2180219694e-01
6.1212186780e-01 5.5726739953e-01 5.6103463742e-01
3.1437696014e-02 9.9699994827e-01 7.0730293446e-02
6.0603857986e-01 7.9203331556e-01 7.3487868143e-02
1.4319260660e-01 9.4613961423e-01 2.9037167183e-01
5.4000512281e-01 8.2192030417e-01 1.8122218662e-01
4.5303803012e-01 8.7078540113e-01 1.9102180097e-01
8.1261879700e-01 2.8202433156e-01 5.1001271276e-01
2.1751345584e-01 6.8452187688e-01 6.9578566857e-01
1.3375705785e-01 7.2935753522e-01 6.7092967984e-01
2.9617875957e-01 6.9103665854e-01 6.5935307608e-01
3.3199740668e-01 7.4984384348e-01 5.7228658237e-01
1.5070535545e-01 6.5456348662e-01 -7.4083367757e-01
2.0836287075e-01 9.3486094829e-01 -2.8743681297e-01
5.6932232613e-01 8.1732528022e-01 -8.8608550899e-02
5.8175766038e-02 1.0700220112e-01 -9.9255534314e-01
3.5384373623e-01 6.2088465012e-01 -6.9949757796e-01
-4.9682022633e-03 8.4708613357e-02 -9.9639338004e-01
7.1755798116e-01 1.8172764495e-02 -6.9626165650e-01
4.5202972634e-01 2.1738353915e-01 8.6510896621e-01
2.2434816936e-01 4.4604912272e-01 8.6643411696e-01
4.5365940809e-01 1.1543773821e-02 8.9110037748e-01
3.9996277243e-01 4.8207786394e-02 9.1526268907e-01
4.9536756713e-01 5.3340532255e-02 8.6704426707e-01
6.3716191969e-02 4.6878423937e-01 8.8101168199e-01
2.1604470199e-02 4.2613502832e-01 9.0440156153e-01
7.7163483957e-01 4.0354591618e-02 6.3478435811e-01
8.3932403630e-01 1.7299905642e-01 5.1537024416e-01
3.9228377955e-01 2.0676515156e-01 8.9630441726e-01
1.6811787087e-01 4.7900719418e-01 8.6156165735e-01
1.1821874235e-01 4.5196014193e-01 8.8416987003e-01
7.0141824476e-01 1.3141595390e-02 7.1262875636e-01
6.7612963451e-01 2.0254228832e-01 7.0839631477e-01
7.4705143267e-01 2.9231951290e-01 5.9704560909e-01
6.6085885322e-01 5.8607952916e-02 7.4821833977e-01
3.7327150549e-01 1.4574821665e-01 9.1620185578e-01
4.9582680430e-01 1.6221807736e-01 8.5313602404e-01
4.7660702012e-01 1.1010367234e-01 8.7219431878e-01
4.0660423280e-01 1.0094614747e-01 9.0801039266e-01
2.2112069888e-01 3.7898292623e-01 8.9859756184e-01
6.3730290656e-01 6.3056159959e-01 -4.4298653977e-01
5.3577969723e-01 5.9138437785e-01 -6.0266461126e-01
-2.8588826962e-01 -4.7166491108e-01 8.3414633545e-01
-7.4212377797e-02 -6.8146244703e-01 7.2808066605e-01
-4.2352845036e-01 -4.8432037889e-01 7.6554387355e-01
-5.3869545466e-01 -3.9623786976e-01 7.4350706634e-01
-4.2639771985e-02 -5.4918517146e-01 8.3461218377e-01
-5.4747997543e-01 -4.6249767327e-02 8.3553972708e-01
-5.3265216978e-01 -5.2858276624e-01 6.6097044205e-01
-5.0536950974e-01 -4.7949629170e-01 7.1741547577e-01
-5.6272796507e-01 -2.5273146957e-01 7.8706037990e-01
-2.6961017290e-01 -3.5047873448e-01 8.9692530979e-01
-9.5282755833e-01 -1.4068430660e-01 2.6893785521e-01
-7.5443409441e-01 -6.5449239737e-01 4.9688016327e-02
-5.5682345797e-01 -1.8233608597e-01 8.1037101898e-01
-5.9050630460e-01 -7.7529714615e-02 8.0330034706e-01
-2.9171642717e-01 -5.3919316456e-01 7.9004573121e-01
-3.2495277732e-01 -3.6461745334e-01 8.7261664276e-01
-5.0514297552e-01 -3.6055629704e-01 7.8411078997e-01
-6.5787875022e-01 -5.5226746044e-01 5.1205097613e-01
-6.1920183286e-01 -3.5853775901e-01 6.9859842939e-01
-8.6851177974e-01 -2.3361363567e-01 -4.3716353654e-01
-9.2915945079e-01 -3.4204435749e-01 -1.4024397494e-01
-4.5418043652e-01 -7.5267229360e-01 4.7665978385e-01
-4.6794202821e-01 -6.1843177451e-01 6.3132590515e-01
-1.0674339501e-01 -6.3253317054e-01 7.6714251335e-01
-1.6675398575e-01 -5.4257047612e-01 8.2329240655e-01
-9.4999652827e-02 -5.8248745031e-01 8.0726912253e-01
-2.1982899627e-01 -5.7662593729e-01 7.8687847908e-01
-1.9743944720e-01 -6.3163534155e-01 7.4970291449e-01
-8.0880471761e-01 -5.0187595088e-01 -3.0652154688e-01
-3.5621746361e-01 -2.6610989826e-01 8.9570901562e-01
-3.7264026353e-01 -3.1600442682e-01 8.7251386019e-01
-4.0283607239e-01 -4.3225260143e-01 8.0677183103e-01
-3.3944100336e-01 -4.2518307082e-01 8.3904657888e-01
-3.6162111024e-01 -5.5790806381e-01 7.4697306843e-01
-3.7655190989e-01 -6.1275055118e-01 6.9479883505e-01
-6.2078054114e-01 -2.7267710216e-01 7.3503654175e-01
-1.2034573558e-01 -7.7415945487e-01 6.2144512417e-01
-7.6887549267e-01 -5.6078057723e-01 3.0717360072e-01
-5.1533875761e-01 -2.9208827277e-01 8.0567388304e-01
-4.6543055128e-01 -2.7520575862e-01 8.4121114612e-01
-9.6322556422e-01 -2.2426537507e-01 1.4799173618e-01
-9.3624287342e-01 -3.1083545415e-01 1.6380049575e-01
-2.4619384470e-01 -8.2206558783e-01 5.1341675094e-01
-8.6210608742e-01 -1.3589144273e-01 4.8816658000e-01
-1.9406954586e-02 -8.9695051403e-01 4.4170481715e-01
-1.5799084146e-01 -8.1674500490e-01 5.5494728667e-01
-4.4220069498e-01 -3.7323404548e-01 8.1557028676e-01
-4.2120447811e-01 -3.2356390397e-01 8.4728577686e-01
-4.1084729963e-01 -7.3430312880e-01 5.4037340000e-01
-6.6410618462e-01 -3.9499162772e-01 6.3477916599e-01
-6.2644879632e-01 -5.0559571238e-01 5.9324099758e-01
-1.7640047068e-02 -9.7910714677e-01 2.0257843886e-01
-6.7433809107e-01 -7.1524255346e-01 -1.8356532530e-01
-8.6443081316e-02 -9.3972063355e-01 3.3083640153e-01
-3.7234209061e-01 -8.5599371543e-01 3.5865878869e-01
-3.7175847594e-01 -9.0245852753e-01 2.1763327331e-01
-7.5055662945e-01 -3.3988558888e-01 5.6669439071e-01
-2.2066019336e-01 -6.8144958671e-01 6.9780766680e-01
-1.3536852445e-01 -7.2879500384e-01 6.7121770311e-01
-2.9887739425e-01 -6.9078065285e-01 6.5840291072e-01
-3.2578581006e-01 -7.4771091561e-01 5.7861212625e-01
-3.4906384253e-02 -6.0929598355e-01 -7.9217419093e-01
-2.1060974463e-02 -9.9722175849e-01 -7.1450680602e-02
-5.4612206299e-01 -7.4816147106e-01 -3.7683564791e-01
-2.7495565199e-01 -9.4765725174e-02 -9.5677523315e-01
-2.9506086651e-01 -6.4270539654e-01 -7.0701404393e-01
-7.0116031217e-02 -1.0187508583e-01 -9.9232313742e-01
-5.0719791977e-01 -3.5807078635e-01 -7.8392319914e-01
-4.5121118248e-01 -2.1621364389e-01 8.6582915693e-01
-2.2713202053e-01 -4.5300111934e-01 8.6209108053e-01
-4.2348833368e-01 -1.1336340608e-02 9.0583062358e-01
-2.1913725637e-02 -4.4343558227e-01 8.9603832117e-01
-6.5706099924e-02 -3.9229094683e-01 9.1749142855e-01
-6.2274739772e-02 -4.8426035091e-01 8.7270485809e-01
-7.5001766759e-01 -4.5931479815e-02 6.5982103442e-01
-8.0927047518e-01 -1.6290149188e-01 5.6439737947e-01
-3.6807365950e-01 -1.6909240834e-01 9.1429182356e-01
-3.9798142715e-01 -2.1038912606e-01 8.9294299890e-01
-1.6613999640e-01 -3.7291285731e-01 9.1287102180e-01
-1.6722582870e-01 -4.9034415525e-01 8.5533509903e-01
-1.2005644739e-01 -4.6534476815e-01 8.7694965431e-01
-1.1685920052e-01 -4.0822062821e-01 9.0537276630e-01
-6.8061520313e-01 -2.6461682532e-02 7.3216304511e-01
-6.7274725480e-01 -2.0370619522e-01 7.1127696236e-01
-7.6119835025e-01 -2.4735124921e-01 5.9949514685e-01
-6.4806270209e-01 -6.7094914948e-02 7.5862573549e-01
-3.7400354483e-01 -1.1510636913e-01 9.2025641657e-01
-4.9723656964e-01 -1.6387726233e-01 8.5199767412e-01
-4.8609833724e-01 -1.0096729982e-01 8.6805184805e-01
-4.3379652077e-01 -7.4524172342e-02 8.9792356373e-01
-2.1969956615e-01 -3.8975335857e-01 8.9432903348e-01
-5.9186024584e-01 -5.0219718530e-01 -6.3047556374e-01
-6.1821774788e-01 -6.9133900846e-01 -3.7397485422e-01
-1.7013111924e-01 9.4845939399e-03 9.8537578859e-01
-2.7226598371e-01 7.5934537911e-03 9.6219206688e-01
-2.2247250309e-01 -1.6595419784e-02 9.7479771102e-01
-7.2160306980e-02 -1.0038773608e-01 9.9232816777e-01
-1.2675707202e-01 -8.3180295837e-02 9.8844002503e-01
-7.5904011442e-02 -2.4934194834e-01 9.6543626089e-01
-1.6433893968e-01 -1.0908376029e-01 9.8035373521e-01
-2.2094414831e-01 -8.4080742872e-02 9.7165534631e-01
-5.6663754940e-02 -1.5093551293e-01 9.8691827920e-01
-1.5356021025e-01 -3.0942034891e-01 9.3844462251e-01
-1.3879361507e-02 -2.6023693310e-01 9.6544502794e-01
-3.0929311187e-01 -2.5120826142e-01 9.1718710215e-01
-7.3993320991e-02 -1.1216867465e-02 9.9719565299e-01
-2.6073775387e-01 -2.8981330593e-01 9.2088222450e-01
-4.1331389260e-02 -5.9017759821e-02 9.9740093257e-01
-3.0479333074e-01 -1.9832920754e-01 9.3153988158e-01
-9.5416292292e-02 -1.9522176162e-01 9.7610665142e-01
-1.5921328932e-01 -1.7621086603e-01 9.7139119782e-01
-2.6645333517e-01 -1.7213335201e-01 9.4835263974e-01
-5.1396441731e-02 -3.4462231710e-01 9.3733337950e-01
-1.0265715158e-01 -2.9644330935e-01 9.4951717919e-01
-2.0645874602e-01 -2.6856851746e-01 9.4087498512e-01
-2.0240912504e-01 -2.0606160879e-01 9.5737618494e-01
-2.6587230142e-01 -1.1294616699e-01 9.5736883316e-01
-3.6736069728e-01 8.8733552693e-03 9.3003622599e-01
-3.2323802744e-01 -7.8943217891e-02 9.4301916522e-01
-3.2355640566e-01 -2.8653000022e-02 9.4577495100e-01
-1.2345250537e-01 -2.6419945319e-02 9.9199872248e-01
-1.0699130458e-01 1.8714474439e-01 9.7648845635e-01
-1.5735289744e-01 7.0003481382e-02 9.8505815984e-01
-3.8090822191e-01 1.0810784368e-01 9.1827099519e-01
-2.5543384962e-01 2.9711582863e-01 9.2004115823e-01
-2.6031399728e-01 1.0839293530e-01 9.5942044714e-01
-2.9047783777e-01 1.6442167680e-01 9.4264953082e-01
-2.8997195958e-01 2.5800319214e-01 9.2160220025e-01
-1.5386653735e-01 3.0546136164e-01 9.3969061144e-01
-1.9837048105e-01 2.7505812611e-01 9.4074022956e-01
-1.7050733686e-01 1.7896804566e-01 9.6896733005e-01
-1.9467176964e-01 1.1455189020e-01 9.7415643844e-01
-5.5578850697e-02 3.5770793644e-02 9.9781333008e-01
-3.5221741444e-01 5.9974416651e-02 9.3399462649e-01
-9.1459940249e-02 8.3256545252e-02 9.9232223950e-01
-7.1079374421e-02 1.3666170327e-01 9.8806442168e-01
-2.8723790290e-01 6.2233141768e-02 9.5583545823e-01
-2.6822408242e-01 2.0801322808e-01 9.4063081948e-01
-2.0651286284e-01 2.1899907289e-01 9.5362038755e-01
-1.0229609566e-01 2.9003873262e-01 9.5153194502e-01
-5.3830762558e-02 3.2983024666e-01 9.4250424794e-01
2.0444663666e-01 1.7879264356e-03 9.7887607800e-01
1.7706916949e-01 -4.6308385110e-02 9.8310835755e-01
9.2021567521e-02 -3.7182762225e-03 9.9575007182e-01
2.6520473411e-02 -2.2086646223e-01 9.7494341905e-01
9.9560702149e-02 -1.1004900143e-01 9.8892713780e-01
1.2625423976e-01 -5.1024919190e-02 9.9068477558e-01
1.3598763852e-01 -1.5135218360e-01 9.7908113999e-01
1.9880296960e-01 -1.3636022338e-01 9.7050670722e-01
2.1320043136e-01 -9.0638187433e-02 9.7279509407e-01
3.2267518482e-01 -1.4901741182e-01 9.3470558791e-01
2.5514254742e-01 -2.9776129787e-01 9.1991330569e-01
2.9838995734e-01 -2.5531405794e-01 9.1966198420e-01
2.2550412235e-01 -1.8467306421e-01 9.5657919179e-01
2.5568037864e-01 -7.0904860448e-03 9.6673536658e-01
3.8557069008e-02 -6.6155294168e-03 9.9923450061e-01
1.5249954937e-01 -3.2040429412e-01 9.3492511772e-01
1.9704728456e-01 -2.8187268996e-01 9.3899954968e-01
1.3007996307e-01 -2.0631518661e-01 9.6980062228e-01
9.1571286064e-03 -5.7856352875e-02 9.9828292053e-01
4.2612222454e-02 -1.1371416838e-01 9.9259925771e-01
3.1148505033e-01 -8.6852694540e-02 9.4627357190e-01
3.6053087334e-01 -4.8083204484e-02 9.3150710938e-01
2.6610410548e-01 -6.6056729326e-02 9.6167827965e-01
2.8210143987e-01 -1.9249580196e-01 9.3987453623e-01
1.8684921877e-01 -2.2833565860e-01 9.5548427326e-01
9.6307725657e-02 -3.0341524885e-01 9.4797890733e-01
8.5971244587e-02 -2.3803427982e-01 9.6744437914e-01
-3.9525678368e-03 -3.2101558641e-01 9.4706566324e-01
4.8864278352e-02 -3.4005634834e-01 9.3913468803e-01
8.1627207774e-03 -1.6283840471e-01 9.8661898621e-01
4.7970181540e-01 -2.9183597647e-01 8.2747684629e-01
6.8587045316e-01 -7.9085528372e-02 7.2341357513e-01
4.9879755873e-01 -4.3197936020e-01 7.5139525402e-01
4.1306053769e-01 -5.5941488620e-01 7.1863480106e-01
5.5430365798e-01 -4.9003468523e-02 8.3087069681e-01
3.1569097769e-02 -5.5628005847e-01 8.3039501962e-01
5.6217497898e-01 -5.3936416774e-01 6.2693347938e-01
4.9656357322e-01 -5.2025384334e-01 6.9480972665e-01
2.6074918523e-01 -5.7253255635e-01 7.7731353669e-01
3.5908105396e-01 -2.6698940446e-01 8.9430277568e-01
1.0805014565e-01 -9.7422027323e-01 1.9804046369e-01
6.8448437615e-01 -7.2516379180e-01 7.4957413723e-02
1.8205662346e-01 -5.6023000428e-01 8.0808274833e-01
6.8205025796e-02 -5.9811746405e-01 7.9850082884e-01
5.4705021104e-01 -2.9518779773e-01 7.8332638834e-01
3.7096461969e-01 -3.2940193537e-01 8.6826241190e-01
3.7000655586e-01 -5.1424426089e-01 7.7372345755e-01
6.6046786206e-01 -6.0774275254e-01 4.4094325022e-01
3.6751766184e-01 -6.3208857420e-01 6.8219850675e-01
1.3190148676e-01 -6.2924559464e-01 -7.6593209844e-01
1.7005872783e-01 -9.8407940070e-01 5.1650384328e-02
7.2766573020e-01 -5.0303411630e-01 4.6632527589e-01
6.3754683227e-01 -4.5667778957e-01 6.2046710886e-01
6.3880113816e-01 -1.1163667976e-01 7.6122950391e-01
5.4945093883e-01 -1.7080019096e-01 8.1788199673e-01
5.8848100778e-01 -1.0109515721e-01 8.0216573891e-01
5.8419541225e-01 -2.2430327161e-01 7.8000241195e-01
6.3649939154e-01 -2.0232195280e-01 7.4426766152e-01
5.1057873854e-01 -8.1114100278e-01 -2.8523608704e-01
2.6596375295e-01 -3.5640462620e-01 8.9567796921e-01
3.2513321045e-01 -3.7272105976e-01 8.6911875315e-01
4.4093381734e-01 -4.1459655728e-01 7.9604463658e-01
4.3452208408e-01 -3.4260134628e-01 8.3295550660e-01
5.6836888361e-01 -3.6913540091e-01 7.3532024856e-01
6.2361467982e-01 -3.7871422345e-01 6.8387152892e-01
2.7267810709e-01 -6.2380441854e-01 7.3247163585e-01
7.8332810531e-01 -1.3194811449e-01 6.0744281584e-01
6.1177143404e-01 -7.3297370790e-01 2.9746471391e-01
2.9994073648e-01 -5.2603793945e-01 7.9581382299e-01
2.8310921422e-01 -4.7052302911e-01 8.3573754966e-01
1.7430473590e-01 -9.3273665536e-01 3.1562666363e-01
3.0466151529e-01 -8.9860935016e-01 3.1572550879e-01
8.0976252263e-01 -2.8924949456e-01 5.1050894883e-01
1.0943283095e-01 -8.9235552738e-01 4.3786535403e-01
8.7801133526e-01 -1.2981329179e-01 4.6070012418e-01
8.2833186486e-01 -1.9105565143e-01 5.2665364303e-01
3.8742622200e-01 -4.5092262736e-01 8.0409558303e-01
3.3094386893e-01 -4.2898382940e-01 8.4050522291e-01
7.0614365745e-01 -4.4613965102e-01 5.4983683655e-01
3.8150427986e-01 -6.9166298212e-01 6.1323470516e-01
5.6509270560e-01 -6.2162714440e-01 5.4244808731e-01
9.8883934755e-01 -4.1277651137e-02 1.4315341506e-01
7.7113516765e-01 -6.3637784669e-01 1.9333635216e-02
9.2225507614e-01 -1.5004166212e-01 3.5627668203e-01
8.1258967059e-01 -4.5875460168e-01 3.5950277146e-01
8.5478366445e-01 -3.4557536641e-01 3.8719833822e-01
2.7880197812e-01 -8.1116854182e-01 5.1407689480e-01
6.8804420870e-01 -2.2641287188e-01 6.8944352802e-01
7.3735479039e-01 -1.4622431410e-01 6.5948947153e-01
6.9284195317e-01 -3.0648003350e-01 6.5271740976e-01
7.4643152688e-01 -3.3920123528e-01 5.7252292326e-01
9.8065020215e-01 -3.7804527457e-02 -1.9208331196e-01
9.7770094680e-01 -1.6339688515e-01 -1.3191784012e-01
7.7568978382e-01 -6.1131398020e-01 -1.5684571047e-01
3.5354847572e-01 -2.7895248094e-01 -8.9285440509e-01
6.3589129411e-01 -2.2183695255e-01 -7.3920946189e-01
3.2800511668e-01 -3.7270194554e-01 -8.6804717799e-01
4.3644839635e-01 -6.9583066180e-01 -5.7037924876e-01
2.2906757087e-01 -4.5823538938e-01 8.5880636694e-01
4.6100549252e-01 -2.2905453258e-01 8.5732605056e-01
2.1052936518e-02 -4.4361281047e-01 8.9597123182e-01
6.3005956740e-02 -4.0030865646e-01 9.1421180751e-01
6.3711649140e-02 -4.9574330639e-01 8.6612897419e-01
4.5416821435e-01 -3.0897306399e-02 8.9038002535e-01
4.0699113454e-01 -6.7934699617e-02 9.1090235097e-01
4.9337245127e-01 -6.8274387564e-02 8.6713449495e-01
3.7109032180e-02 -7.7004555372e-01 6.3690875714e-01
1.6055965514e-01 -8.3974596080e-01 5.1869771396e-01
1.6241976023e-01 -3.8189718775e-01 9.0982105904e-01
2.1740467008e-01 -3.9784859650e-01 8.9132020267e-01
3.8391595055e-01 -1.6206873991e-01 9.0903369930e-01
4.9855346040e-01 -1.7173085544e-01 8.4967815107e-01
4.7438495718e-01 -1.2417892293e-01 8.7151506441e-01
4.1812501921e-01 -1.1979655754e-01 9.0045558086e-01
1.6086898311e-02 -6.9725778060e-01 7.1663993685e-01
2.0369945957e-01 -6.8102736049e-01 7.0335500598e-01
2.9106432139e-01 -7.5485953555e-01 5.8776580575e-01
6.1281835550e-02 -6.6056450379e-01 7.4826403961e-01
1.7207867793e-01 -5.0149660750e-01 8.4787385929e-01
1.1976095948e-01 -4.7859248624e-01 8.6983133118e-01
1.1708136412e-01 -4.1468376638e-01 9.0240197699e-01
3.9896675444e-01 -2.2174357545e-01 8.8975014223e-01